16
 energy: -21.165473905271 gnorm: 0.000283789905 xtb: 6.7.1 (edcfbbe)
C            2.05363513117274       -0.36631014446108        0.45224581659026
C            1.96716501698424        0.73059027783096       -0.39045441164776
C            0.74268459991715        1.20943351821119       -0.85905101136329
H            0.69369261995631        2.06589583312399       -1.51531909554948
C           -0.36429174253763        0.52257011453252       -0.42953164025210
C           -0.27732883682557       -0.58090025161896        0.41942201514178
C            0.92140103129328       -1.05871975611896        0.88456979054515
H            1.00731049357673       -1.91210634023783        1.54128530896742
C           -1.77105308692170       -0.77925612289184        0.44635426478167
C           -1.86782005411254        0.44948384491665       -0.50234417680002
H            3.02857606493609       -0.69438861012888        0.78381220402645
H            2.87693196899500        1.22948846719521       -0.69320555161934
H           -2.23365697563295       -0.63990542989606        1.42232863259242
H           -2.11842722611839       -1.71772073196948        0.01720738343382
H           -2.26833588068649        0.23255744932651       -1.49140454849876
H           -2.39048312399627        1.30928788218609       -0.08591598034823
